version 3
run General-0-20220920-00:19:41-19237
attr configname General
attr datetime 20220920-00:19:41
attr datetimef 20220920-001941
attr experiment General
attr inifile omnetpp.ini
attr iterationvars ""
attr iterationvarsd ""
attr iterationvarsf ""
attr measurement ""
attr network System
attr processid 19237
attr repetition 0
attr replication #0
attr resultdir results
attr runnumber 0
attr seedset 0
config network System
config sim-time-limit 10s

vector 0 System.sink readThroughput:vector ETV
attr recordingmode vector
attr source rThroughput
attr title "Read throughput distribution"
0	54	0.000000484938	125.86177253587
0	108	0.000001399971	87.194886536935
0	206	0.000001846516	99.162676494544
0	282	0.000002498704	97.706901257612
0	336	0.000002814948	108.41258213296
0	390	0.000003185579	114.95898783235
0	450	0.000003423846	124.78542952866
0	454	0.000003425169	142.55683442189
0	464	0.00000365249	150.39504728281
0	502	0.00000379492	160.83384168836
0	512	0.000003914976	171.49191176395
0	522	0.000003924875	186.61024236441
0	526	0.000003924904	202.1596021839
0	602	0.000004447051	192.14805215861
0	612	0.000004517325	202.67024040776
0	666	0.00000489848	199.36031177018
0	742	0.000005398894	192.18707688093
0	780	0.000005488983	200.15234379483
0	784	0.000005515385	210.26056544557
0	816	0.000005918147	206.26441435132
0	848	0.00000608413	210.66911477072
0	858	0.000006148638	218.38550870941
0	868	0.000006210454	226.03960898028
0	878	0.000006336368	231.1803465329
0	932	0.00000670215	227.67006203233
0	942	0.000006992331	226.95064957594
0	952	0.000007019292	234.77427905122
0	984	0.000007078456	241.43462571499
0	1038	0.000007478937	236.66726050106
0	1098	0.000008593024	213.08618333895
0	1146	0.000008624341	219.38949813673
0	1200	0.000008710359	224.23013793117
0	1210	0.000008745451	230.30946674448
0	1264	0.000009505963	218.3045855007
0	1274	0.00000992811	215.16990330989
0	1328	0.000010471245	209.8380493437
0	1404	0.000010641864	212.20913753925
0	1458	0.00001084926	213.77826114408
0	1468	0.000010940657	217.5711288408
0	1500	0.000011214335	217.70405913503
0	1582	0.00001129338	221.58480510264
0	1630	0.000011375256	225.35550518599
0	1662	0.000011490632	228.40447059396
0	1672	0.000011624759	231.01957425526
0	1704	0.000011727395	234.20222745546
0	1736	0.000011901965	235.89526498356
0	1746	0.0000120502	238.05848398782
0	1756	0.000012218638	239.77201877983
0	1810	0.000012460112	240.02373784842
0	1864	0.000012573262	242.71806413483
0	1880	0.000012659688	245.88228151831
0	1884	0.000012659961	250.69809654232
0	1938	0.000012876625	251.21980963568
0	1948	0.000013023689	253.06949801243
0	2002	0.000013207981	254.1594808283
0	2034	0.00001333941	256.23087902688
0	2044	0.000013456896	258.52944886027
0	2076	0.000013916983	254.36828244311
0	2108	0.000014122167	254.99445083393
0	2118	0.000014397983	254.34877753363
0	2150	0.000014547435	255.93133987194
0	2182	0.000014828791	255.19138326921
0	2236	0.000015174486	253.40000601997
0	2268	0.000015593673	250.50223895294
0	2300	0.000015633824	253.76294093179
0	2376	0.000015938766	252.73727668127
0	2408	0.000016141175	253.3493050382
0	2462	0.000016342569	253.9619459462
0	2516	0.000016805619	250.59629051748
0	2576	0.000016968001	251.79518421174
0	2580	0.00001698132	255.19194584108
0	2590	0.000017006833	258.39797744824
0	2600	0.000017078487	260.88765393855
0	2632	0.000017245273	261.90374385491
0	2648	0.000017504745	261.50833495432
0	2652	0.000017558636	264.18178923465
0	2794	0.000018133103	259.17831224198
0	2870	0.000018753764	253.85528939684
0	2924	0.000019009439	253.6517434181
0	2956	0.000019274874	253.32526168524
0	2972	0.000019373429	255.18702219674
0	2976	0.00001943942	257.46050100775
0	2992	0.000019482254	260.02730324479
0	3018	0.000019538399	262.40395259612
0	3034	0.000019606542	264.60496099975
0	3038	0.000019632056	267.37003182448
0	3092	0.00001996551	265.96158043296
0	3124	0.000020390297	263.4141989202
0	3156	0.000020768073	261.56152794003
0	3166	0.000021078651	260.6032076009
0	3176	0.000021152417	262.57988478338
0	3186	0.000021250648	264.23826581665
0	3196	0.000021351515	265.84856068761
0	3212	0.00002144843	267.49299074571
0	3216	0.000021526597	269.35701187466
0	3226	0.00002179348	268.8590807893
0	3302	0.000022753255	260.20058036751
0	3312	0.000022914956	261.02800775616
0	3322	0.000023013156	262.56635416498
0	3442	0.000023521233	259.48961200291
0	3458	0.000023612946	261.06656836678
0	3462	0.00002362807	263.48262627883
0	3472	0.000023710188	265.14429551339
0	3504	0.000023902123	265.56872165707
0	3542	0.000024162692	265.23085284744
0	3546	0.000024169327	267.6833559536
0	3556	0.000024204523	269.81575793706
0	3676	0.000024577203	268.2077726664
0	3686	0.000024856711	267.64731791145
0	3696	0.0000250184	268.35717661801
0	3706	0.000025102238	269.89236353149
0	3716	0.000025278707	270.42275144848
0	3770	0.000025840678	266.90370338774
0	3802	0.000026107215	266.51666263521
0	3856	0.000026285746	267.02848641808
0	3866	0.000026440223	267.77679314581
0	3992	0.000026707115	267.3861733568
0	4002	0.000026746365	269.27578523287
0	4034	0.000026817229	270.84019731308
0	4038	0.000026825582	273.03112193428
0	4048	0.000026896763	274.57779608089
0	4058	0.000026975056	276.04350710152
0	4112	0.000027119532	276.82351667241
0	4232	0.000027437055	275.84445105351
0	4242	0.000027515877	277.27244642248
0	4252	0.000027667407	277.95990016339
0	4262	0.000027822396	278.60522306382
0	4316	0.000028556254	273.58280256227
0	4326	0.000028593095	275.36491437006
0	4336	0.000028852905	275.00074299278
0	4346	0.000029057221	275.16758979635
0	4356	0.000029439173	273.67075240191
0	4366	0.000029515596	275.03004788553
0	4398	0.000030166133	271.12228595889
0	4452	0.000030888167	266.76060427121
0	4462	0.00003101131	267.66948090874
0	4523	0.000031199392	268.0121588988
0	4533	0.000031220229	269.7882697305
0	4537	0.000031253726	271.45200923404
0	4635	0.000033146925	257.78927834181
0	4645	0.000033371958	257.87989518775
0	4699	0.000033898267	255.67655678386
0	4841	0.000034436622	253.45190198243
0	4851	0.000034548248	254.39965870339
0	4861	0.000034612527	255.69059595822
0	4893	0.000034926393	255.1403694192
0	4947	0.000035385748	253.55315277637
0	4963	0.000035464441	254.71156094072
0	4989	0.000035537247	255.90722548795
0	5021	0.000035808569	255.67269771378
0	5031	0.000035815486	257.327475432
0	5107	0.000036023982	257.53243353275
0	5117	0.000036277274	257.41677575471
0	5177	0.000036697037	256.13550386915
0	5181	0.000036748082	257.44062557469
0	5257	0.000037154827	256.26507088837
0	5267	0.00003730453	256.87281226301
0	5277	0.000037337644	258.27967847945
0	5309	0.000037578798	258.24641447419
0	5319	0.000037699824	259.03635518298
0	5329	0.000037959089	258.87502611693
0	5361	0.000038358632	257.76975864259
0	5399	0.0000386068	257.69373449107
0	5403	0.000038665648	258.8800690732
0	5457	0.000038939471	258.62705688144
0	5533	0.000039179242	258.60214287709
0	5543	0.000039314708	259.26355840542
0	5559	0.000039524029	259.43474158467
0	5569	0.000039566206	260.70079618577
0	5573	0.000039588981	262.09253939878
0	5605	0.000040054642	260.56934221881
0	5615	0.000040111539	261.7213683823
0	5647	0.000040388405	261.43845074471
0	5701	0.000040734652	260.71456772234
0	5777	0.000041199547	259.25412101618
0	5787	0.000041264912	260.32255927263
0	5885	0.000041567885	259.8934888376
0	5895	0.000041615444	261.06312388497
0	5905	0.000041711191	261.92714009892
0	5915	0.000041853278	262.49624043785
0	5925	0.000041971671	263.20999421848
0	5941	0.000042306927	262.56689448279
0	5945	0.000042340181	263.80221647494
0	5955	0.000042607528	263.57944891804
0	5965	0.000042733053	264.23349406489
0	5997	0.000042818038	265.13449921503
0	6079	0.000043219432	264.08431787697
0	6083	0.000043303919	264.9785432815
0	6093	0.000043509292	265.1305962701
0	6169	0.000044468118	260.78638379749
0	6179	0.000044728916	260.63039050063
0	6189	0.000044951606	260.69702604174
0	6199	0.000045026812	261.61712617473
0	6275	0.000047648649	248.50275004649
0	6351	0.000048759159	244.09476522657
0	6405	0.000048862234	244.8289741521
0	6481	0.000049070945	245.0314698698
0	6519	0.000049401946	244.6252003413
0	6545	0.000049414817	245.7966422045
0	6555	0.000049574954	246.23383916806
0	6565	0.000050023853	245.24433186404
0	6575	0.000050683678	243.2558576846
0	6607	0.000050918892	243.33083914611
0	6639	0.000051139968	243.4724220985
0	6737	0.000051422913	243.31968574495
0	6769	0.000051680446	243.28819042119
0	6823	0.000052294515	241.59851838668
0	6833	0.000052483376	241.89207073874
0	6865	0.000052789799	241.64417932809
0	6919	0.000052917524	242.21433362037
0	6929	0.000052975243	243.10257470173
0	6939	0.000053353462	242.52321480094
0	7043	0.000053637154	242.37841331496
0	7047	0.000053721479	243.13409981695
0	7057	0.000053996427	243.02642457713
0	7111	0.000054279049	242.88549620683
0	7143	0.000054474222	243.13571483866
0	7181	0.000054952236	242.13144052045
0	7185	0.000054962839	243.195210836
0	7201	0.000055001295	244.13487673336
0	7205	0.000055100264	244.80408172364
0	7237	0.000055263912	245.18359625898
0	7269	0.000055650739	244.57608449279
0	7345	0.00005632227	242.74367847745
0	7355	0.000056743858	242.01579942361
0	7387	0.000056900393	242.42267206309
0	7397	0.000057211167	242.17265955701
0	7429	0.000057716778	241.10867077507
0	7439	0.000057768221	241.9505143018
0	7493	0.000058077296	241.71383491236
0	7525	0.000058529098	240.89079749273
0	7557	0.000058886697	240.46443375827
0	7573	0.000059140546	240.46432385406
0	7577	0.000059193043	241.28218180133
0	7587	0.000059524704	240.96317587316
0	7619	0.000060071996	239.78388990104
0	7761	0.000060977998	237.22215398495
0	7793	0.000061379211	236.66591588315
0	7803	0.000061836714	235.90196503246
0	7846	0.000062087211	235.93325040804
0	7940	0.000062358174	235.88684069309
0	7944	0.000062358949	236.86268048713
0	7998	0.000062852597	235.97343111773
0	8008	0.000062873933	236.86410908953
0	8018	0.000062963357	237.49707756608
0	8072	0.000063228045	237.46817472373
0	8082	0.000063975891	235.64632485931
0	8092	0.000064052294	236.31813639649
0	8124	0.000064491216	235.65618465389
0	8178	0.000064689475	235.87746016643
0	8188	0.000065142975	235.17231472388
0	8220	0.000065296269	235.55494993137
0	8230	0.000065515715	235.69756555736
0	8284	0.000066017056	234.83218772282
0	8294	0.000066031864	235.70385418394
0	8304	0.000066067112	236.50193760551
0	8336	0.000066364418	236.36212942077
0	8368	0.00006643592	237.02645063845
0	8378	0.000066498868	237.71991831124
0	8432	0.00006742328	235.36589476217
0	8464	0.000067502717	235.99310500717
0	8480	0.000067784982	235.91082369101
0	8484	0.000067795385	236.77490870138
0	8538	0.000068471787	235.32730714331
0	8592	0.000069011026	234.37293058431
0	8652	0.000069682186	232.99142140145
0	8700	0.000069769235	233.57553968809
0	8716	0.000069881247	234.07455615381
0	8726	0.000069975798	234.63050798292
0	8730	0.000069994383	235.44020935937
0	8762	0.000070250426	235.45091874247
0	8816	0.000070473782	235.57076162026
0	8848	0.000070831716	235.24204406187
0	8902	0.000071248928	234.72118503313
0	8912	0.000071371755	235.17241475637
0	8922	0.000071438593	235.80675959002
0	8932	0.000071755613	235.61555081761
0	9030	0.000072508973	234.00929202928
0	9040	0.000072599463	234.55832715663
0	9072	0.000073378713	232.89920266113
0	9082	0.000073596327	233.0398758385
0	9092	0.000073692021	233.56550450014
0	9190	0.000074133826	232.99686729712
0	9200	0.000074292812	233.31980454583
0	9210	0.000074326021	234.03673837525
0	9242	0.000074582474	234.05035729306
0	9252	0.000074671842	234.58762198139
0	9350	0.000076830296	228.79158242472
0	9404	0.00007730682	228.17081541124
0	9414	0.000077393595	228.7036196277
0	9446	0.000077975181	227.78056095503
0	9500	0.00007837553	227.39579081634
0	9521	0.000078524284	227.74229665373
0	9565	0.000078668515	228.10060590949
0	9597	0.000078972726	227.99480283548
0	9651	0.000079475652	227.32001305255
0	9683	0.000079684546	227.49005065863
0	9759	0.000079985654	227.39673495075
0	9791	0.000080309915	227.23858839534
0	9801	0.000080516028	227.41493004349
0	9811	0.000080666301	227.7479170794
0	9887	0.000080932875	227.75191400899
0	9919	0.000081103481	228.02538332171
0	9929	0.000081157673	228.6251787924
0	9967	0.000081459018	228.52868980387
0	9993	0.000081474388	229.23471131198
0	10003	0.000081582781	229.67828185153
0	10019	0.000081678227	230.15715222369
0	10023	0.000081690826	230.86880381464
0	10033	0.000081956901	230.86400543012
0	10065	0.000082258921	230.75835864356
0	10075	0.000082685252	230.30671479359
0	10151	0.000083070196	229.97422452512
0	10183	0.00008336933	229.88116928012
0	10237	0.000083617312	229.92935026122
0	10291	0.00008378842	230.18824528497
0	10345	0.000084046512	230.20758471512
0	10377	0.000084277367	230.30121108909
0	10409	0.000084485535	230.45619399522
0	10419	0.000084577937	230.92606290456
0	10429	0.00008460117	231.58409223241
0	10489	0.00008577805	229.11829206306
0	10493	0.00008578299	229.8166043029
0	10503	0.000085868193	230.29936853335
0	10513	0.000085942458	230.81054746247
0	10567	0.000086296919	230.56977199267
0	10577	0.000086424294	230.93617743351
0	10587	0.000086518496	231.39019025481
0	10619	0.000086748891	231.47922901112
0	10651	0.000086811158	232.01627563245
0	10799	0.000087729134	230.2842373749
0	10803	0.000087732802	230.97030315981
0	10819	0.000087819504	231.43727879914
0	10845	0.000087864817	232.0125720799
0	10899	0.00008819931	231.8246859726
0	10909	0.000088339361	232.1480738354
0	10941	0.000088830325	231.55209278194
0	10951	0.000089294169	231.0328103563
0	10961	0.000089320917	231.64694971448
0	10971	0.000089347158	232.2620393253
0	10981	0.000089398751	232.81072776117
0	11057	0.000090112523	231.64397957762
0	11067	0.000090200265	232.09531140236
0	11099	0.000090558966	231.84997220485
0	11109	0.000090888955	231.6797338714
0	11163	0.000091193893	231.57432332119
0	11173	0.00009157116	231.28678525804
0	11205	0.000092417742	229.82853633234
0	11303	0.000093403486	228.05647244526
0	11341	0.000093654424	228.09712318021
0	11345	0.000093669514	228.71197819762
0	11355	0.000093756445	229.15091330521
0	11497	0.000095110118	226.53121044651
0	11529	0.00009516682	227.03758844206
0	11539	0.000095495638	226.89497575533
0	11549	0.000095634878	227.20283728495
0	11603	0.000095911513	227.18389169035
0	11635	0.000095941746	227.74847080123
0	11667	0.000096198306	227.77553997417
0	11677	0.00009628972	228.19316797266
0	11687	0.000096534009	228.24796809433
0	11697	0.00009695174	227.89406938442
0	11795	0.00009732222	227.65368195208
0	11833	0.000097457853	227.96312653225
0	11837	0.000097473848	228.55188841267
0	11847	0.000097590278	228.90463727852
0	11857	0.000097706879	229.2561442245
0	11933	0.00009785795	229.52593529703
0	11943	0.000098102958	229.57485804098
0	11975	0.000098496195	229.27797172774
0	11985	0.000098656042	229.52515132069
0	12017	0.000099171738	228.94706277105
0	12027	0.00009922427	229.44097529012
0	12059	0.000099475898	229.47416305304
0	12069	0.000099522261	229.98054268231
0	12079	0.000100127442	229.20009032089
0	12155	0.000100667993	228.57566958994
0	12215	0.000100823754	228.82791155049
0	12219	0.000100832996	229.41224734362
0	12273	0.000101554918	228.38243417222
0	12327	0.000102058273	227.85408617732
0	12337	0.000102119412	228.31535386729
0	12391	0.000102272549	228.57027689561
0	12423	0.000102469593	228.7263891055
0	12571	0.000103632474	226.74876174673
0	12575	0.000103652418	227.29397699627
0	12585	0.000103698871	227.78073898943
0	12617	0.00010398347	227.7442811343
0	12649	0.000104064042	228.15446454838
0	12659	0.000104162777	228.52415827489
0	12669	0.000104229825	228.96273781281
0	12723	0.000104466794	229.02762048963
0	12733	0.000104536529	229.45870343801
0	12743	0.000104652297	229.78809115389
0	12775	0.000104975091	229.66292754869
0	12785	0.000105055082	230.06904011555
0	12817	0.000105310169	230.09133174262
0	12827	0.000105431199	230.40610765984
0	12837	0.000105496713	230.84157459721
0	12869	0.000106333778	229.59837371715
0	12879	0.000106559822	229.68410792062
0	13021	0.000107269179	228.73422768063
0	13053	0.000107406274	229.01053218502
0	13091	0.000107526357	229.32240813292
0	13095	0.000107534015	229.87366631154
0	13105	0.000107639828	230.21472532918
0	13159	0.000107796432	230.44648262338
0	13191	0.000107898362	230.7944558973
0	13223	0.000108057842	231.01866966999
0	13233	0.00010849324	230.65413165373
0	13265	0.000108904062	230.34447713025
0	13341	0.000109395233	229.86819156005
0	13379	0.000109507037	230.19086464051
0	13405	0.000109538579	230.68178278541
0	13415	0.000109596806	231.11613164849
0	13469	0.00010978648	231.27278513711
0	13523	0.000109960335	231.46219185536
0	13533	0.000110042994	231.84297686866
0	13609	0.000110456637	231.52733202216
0	13619	0.000110634573	231.70664404336
0	13657	0.000110726297	232.06592722278
0	13661	0.000110731232	232.60678556796
0	13677	0.000110887957	232.82844947491
0	13681	0.000110921269	233.3087827367
0	13757	0.000111577668	232.48327260478
0	13789	0.00011186857	232.42432224261
0	13799	0.00011201637	232.66252708198
0	13809	0.000112125848	232.97970397513
0	13819	0.000112318611	233.12327136284
0	13829	0.00011245037	233.39289312699
0	13927	0.000112858297	233.09010540669
0	13943	0.000113489383	232.33175476864
0	13947	0.000113491238	232.86575353289
0	13979	0.000113542863	233.29742717955
0	13989	0.000113637322	233.64060769357
0	14043	0.000113925738	233.58486494948
0	14053	0.000114171341	233.61697469464
0	14085	0.000114442338	233.59710142849
0	14139	0.000115394448	232.19863744008
0	14237	0.000115657874	232.19749612551
0	14247	0.000115679517	232.68167610217
0	14257	0.000116094193	232.37630035897
0	14267	0.000116248153	232.59358123952
0	14343	0.000116836217	231.94528264297
0	14353	0.000116900344	232.34015916369
0	14391	0.00011697144	232.72073668154
0	14417	0.000116993625	233.19830327293
0	14471	0.000117365172	232.98010418287
0	14525	0.000117671557	232.89217764196
0	14535	0.000117723341	233.30819597194
0	14545	0.000117848026	233.57926647622
0	14555	0.000118025328	233.74551117536
0	14719	0.000119348726	231.66502658143
0	14729	0.000119402393	232.07207360995
0	14739	0.000119739936	231.92760094468
0	14749	0.000119872292	232.18068817772
0	14853	0.000120775185	230.9503099188
0	14857	0.000120791147	231.42508583431
0	14867	0.000120909036	231.70424350046
0	14877	0.000120930014	232.16876395135
0	14953	0.000121308338	231.94784047944
0	14985	0.000121624158	231.84737844187
0	15001	0.000121924554	231.77675387478
0	15011	0.000121983733	232.16466493938
0	15015	0.000121994299	232.64486856267
0	15047	0.000122219043	232.71645820774
0	15079	0.000122280988	233.09770746005
0	15089	0.000122338812	233.4864354004
0	15143	0.000122979597	232.76615779811
0	15197	0.000123201778	232.84179744143
0	15207	0.00012324696	233.2516647368
0	15217	0.000123678066	232.9321170821
0	15271	0.000124054074	232.71810409266
0	15281	0.000124115902	233.09393555791
0	15291	0.000124405907	233.04117881436
0	15345	0.000124765523	232.85867502836
0	15355	0.000124891366	233.11274801214
0	15387	0.000125229891	232.96997589417
0	15397	0.000125422785	233.09831498121
0	15473	0.000126759481	231.12176516406
0	15505	0.000127025436	231.1183577142
0	15647	0.000128378503	229.15787787695
0	15679	0.00012861008	229.21982840497
0	15689	0.000128656171	229.61211572976
0	15743	0.000128875271	229.6953523477
0	15759	0.000129083101	229.79836793276
0	15763	0.000129106837	230.22886924067
0	15773	0.000129295504	230.36498044046
0	15805	0.000129377603	230.69055782592
0	15837	0.000129550262	230.85423449394
0	15847	0.000129710896	231.03889220494
0	15857	0.000129803233	231.3447529847
0	15911	0.000130821213	230.01110707672
0	15943	0.000130924185	230.29639013984
0	16047	0.000131828418	229.17973834557
0	16073	0.000131840997	229.62081741539
0	16105	0.000132024597	229.76379663746
0	16115	0.000132348149	229.66326346204
0	16147	0.000132556089	229.76343975228
0	16201	0.000133189182	229.12955591994
0	16233	0.000133428405	229.17618839294
0	16243	0.000133443054	229.60841736656
0	16253	0.000133459736	230.03704723161
0	16329	0.000133921876	229.69898323408
0	16345	0.000134019475	229.9871261714
0	16383	0.000134105935	230.29397664242
0	16387	0.000134107673	230.74611263108
0	16391	0.000134142415	231.1413535756
0	16401	0.000134224279	231.45510456607
0	16455	0.000135264246	230.12681183688
0	16487	0.000135649547	229.92310356739
0	16519	0.000135782323	230.14777851459
0	16529	0.000136030107	230.17724419088
0	16539	0.000136115546	230.4811701119
0	16599	0.000136767911	229.82807325872
0	16609	0.000136778237	230.25695692364
0	16635	0.000136806526	230.65548628323
0	16689	0.000137523623	229.8965824766
0	16699	0.000137818228	229.84801468896
0	16731	0.000137947599	230.074908734
0	16785	0.000138296024	229.93659171467
0	16801	0.000138482985	230.06690361635
0	16805	0.000138514878	230.45457051011
0	16947	0.000139638863	229.03668210905
0	16957	0.000139721598	229.33789399725
0	17011	0.000139875696	229.52159028042
0	17021	0.000140001738	229.75091454758
0	17103	0.000140372875	229.57827500505
0	17107	0.000140436405	229.90903004282
0	17139	0.000140788743	229.7671825403
0	17149	0.00014084298	230.11205790129
0	17225	0.000141585476	229.33639835346
0	17235	0.000141757714	229.48831046507
0	17267	0.000141808016	229.83731355144
0	17277	0.000142112627	229.774153663
0	17331	0.000142504919	229.56992628444
0	17347	0.000142732544	229.63143504434
0	17373	0.000142764977	230.00678984805
0	17383	0.000142882179	230.24529335285
0	17481	0.000143334332	229.94480048925
0	17491	0.000143381889	230.2942147125
0	17501	0.000143653077	230.28434460544
0	17511	0.000143679351	230.66703470668
0	17521	0.000143705418	231.04991768647
0	17619	0.000144295555	230.52796155952
0	17651	0.000144390618	230.79889659105
0	17705	0.000144699906	230.7273818737
0	17781	0.000145455375	229.94863974604
0	17813	0.000145599906	230.13957702177
0	17823	0.000145762781	230.3011489435
0	17833	0.000145900209	230.50255598846
0	17865	0.000146182637	230.47474680594
0	17875	0.000146390582	230.56429549717
0	17885	0.000146543113	230.74080978817
0	17895	0.000146655694	230.97986034385
0	17905	0.000146705849	231.31693184912
0	17915	0.000147025727	231.2287973332
0	17925	0.000147089089	231.54414388616
0	17979	0.000147499179	231.31418476404
0	17995	0.00014756467	231.62514103139
0	17999	0.000147572898	232.02581991884
0	18031	0.000148374419	231.18377172887
0	18129	0.000149261455	230.21879941308
0	18139	0.000149605038	230.09805408425
0	18193	0.000150477976	229.16884050361
0	18225	0.00015085347	229.0030082669
0	18235	0.000151034685	229.1323585291
0	18289	0.000151271948	229.17645477799
0	18299	0.000151427348	229.34433155529
0	18331	0.000151750975	229.25743351896
0	18363	0.000152142284	229.06895639052
0	18395	0.000152285434	229.25442347296
0	18427	0.000152334913	229.58062496973
0	18437	0.00015241894	229.85450290823
0	18469	0.000152578687	230.01387371848
0	18523	0.000153004956	229.77196895504
0	18577	0.000153297042	229.73232031607
0	18593	0.000153667086	229.57629529397
0	18597	0.000153786332	229.79516455825
0	18629	0.000154072869	229.76394776552
0	18661	0.000154427518	229.63152060276
0	18737	0.00015494184	229.26319280512
0	18813	0.000155739245	228.48124179458
0	18823	0.000156081397	228.37142628855
0	18921	0.00015665952	227.91826763066
0	18931	0.000156743512	228.18553129331
0	18969	0.000157017759	228.17569774862
0	18973	0.000157043707	228.52664752113
0	18989	0.000157110957	228.8173130487
0	18993	0.000157139133	229.16469946095
0	19025	0.000157253065	229.38679982962
0	19057	0.000157768305	229.0245337934
0	19089	0.000157960743	229.13191574599
0	19171	0.000158535204	228.68663803214
0	19175	0.000158672195	228.87386141441
0	19185	0.000158715261	229.19631606818
0	19239	0.000159648721	228.23852300859
0	19293	0.000160192232	227.84515192659
0	19303	0.000160228568	228.17440766087
0	19335	0.000161042632	227.39999523853
0	19345	0.000161120501	227.66891040297
0	19443	0.000161737202	227.17818540289
0	19475	0.000162056405	227.1073409209
0	19507	0.000162354803	227.0658686642
0	19611	0.000163056669	226.46279822661
0	19621	0.000163105649	226.76899858631
0	19625	0.000163210952	226.9966530417
0	19635	0.000163353473	227.17224383714
0	19673	0.000163673069	227.10156523215
0	19683	0.000163710013	227.42314065115
0	19687	0.000163738365	227.75652162369
0	19725	0.000164008722	227.75322659364
0	19729	0.000164162584	227.91156102447
0	19739	0.00016494372	227.20225988295
0	19771	0.000165407878	226.93369594978
0	19825	0.000165883058	226.65157432774
0	19857	0.000166261417	226.50288976095
0	19911	0.000166569693	226.4501175643
0	19987	0.000167368684	225.73375625484
0	20019	0.000167445133	225.99520330639
0	20029	0.000167556745	226.20893018213
0	20067	0.000167761299	226.2969314961
0	20071	0.000167764191	226.65684564205
0	20103	0.00016791703	226.81402535526
0	20135	0.0001683112	226.64547966059
0	20189	0.000168644218	226.55984453911
0	20227	0.000168732175	226.80347105554
0	20237	0.000168760143	227.12755182366
0	20241	0.000168779347	227.46333579102
0	20251	0.000168959658	227.58183161983
0	20327	0.000169654147	227.00997455576
0	20337	0.000169832506	227.1309518921
0	20369	0.000170179668	227.02626206939
0	20423	0.000170465176	227.00407186099
0	20477	0.000170881272	226.80849554274
0	20487	0.000170946805	227.078589594
0	20497	0.000170998333	227.36709679649
0	20529	0.000171019294	227.69611999158
0	20583	0.000171278557	227.70780841965
0	20593	0.000171343865	227.97723163301
0	20669	0.000171813713	227.70903714915
0	20701	0.000171975956	227.84912044623
0	20711	0.000172012136	228.15602655356
0	20765	0.000172102756	228.3905356228
0	20797	0.000172510994	228.20386613302
0	20807	0.000172624439	228.40746748205
0	20817	0.000172666859	228.70483845282
0	20849	0.000172837396	228.83231387032
0	20859	0.000172930133	229.06254519708
0	20963	0.000174309772	227.59969855563
0	20967	0.000174322936	227.93263830039
0	20977	0.000174456825	228.1075668722
0	21031	0.000174794976	228.01546098928
0	21041	0.00017490587	228.21985441369
0	21051	0.000175465061	227.84038666108
0	21083	0.000175800558	227.75276117155
0	21093	0.000175889378	227.98476014993
0	21147	0.000176499215	227.54284098374
0	21207	0.000177002491	227.24068876946
0	21211	0.000177019295	227.56391118268
0	21265	0.000177369973	227.45810690996
0	21297	0.000177704293	227.37364840983
0	21417	0.000178854971	226.25207657074
0	21449	0.000179415612	225.88526883603
0	21481	0.000180131612	225.32624038389
0	21491	0.000180330691	225.41595020284
0	21501	0.000180509476	225.53081489611
0	21589	0.000180822502	225.47793512447
0	21593	0.000180823155	225.8146614644
0	21597	0.000180834467	226.13805523866
0	21635	0.00018103066	226.23013054115
0	21639	0.000181041803	226.55333917548
0	21699	0.00018147787	226.34528472397
0	21703	0.000181479149	226.68001001316
0	21763	0.000181845598	226.55885499494
0	21767	0.000181845886	226.89413839695
0	21777	0.000181978941	227.06364018928
0	21831	0.000183132506	225.96663389459
0	21869	0.000184231366	224.95013739273
0	21873	0.000184296396	225.20194182202
0	21883	0.000184866318	224.83782798254
0	21959	0.000185897678	223.91875471677
0	22035	0.000186588567	223.41675263924
0	22089	0.000186957469	223.30237512469
0	22165	0.000187393436	223.108572657
0	22181	0.000187504004	223.30252311572
0	22185	0.000187509798	223.62112695439
0	22195	0.000187559715	223.88702979209
0	22227	0.00018765475	224.09889787629
0	22259	0.000187716104	224.35079844029
0	22275	0.000187890205	224.46775747969
0	22279	0.000187893137	224.78909447874
0	22333	0.000188062327	224.9114107859
0	22343	0.000188120052	225.16684418894
0	22419	0.000188575752	224.94638437793
0	22429	0.000189173469	224.55827962852
0	22461	0.000189362645	224.65626156759
0	22477	0.000189679934	224.60224528811
0	22481	0.00018968884	224.91346469697
0	22491	0.000189888028	224.99896294147
0	22523	0.0001901371	225.02522932794
0	22561	0.000190978916	224.3529316477
0	22565	0.00019105641	224.58139375565
0	22597	0.000192453978	223.26766350343
0	22629	0.000192733712	223.26029374794
0	22661	0.000192861511	223.42882252177
0	22671	0.000193315891	223.21939104711
0	22769	0.000193656262	223.14223242107
0	22801	0.000194046866	223.00759952109
0	22811	0.00019415441	223.19843745759
0	22827	0.000194264008	223.38670215097
0	22831	0.000194293329	223.66712986837
0	22863	0.000194754153	223.45128838536
0	22917	0.00019569615	222.68757746384
0	22949	0.000196165235	222.46621180736
0	22981	0.000196320842	222.60077651358
0	23035	0.000196926225	222.22640499634
0	23089	0.000197624466	221.75008527284
0	23099	0.000197748736	221.91938230012
0	23153	0.000198432205	221.46260230289
0	23251	0.00019912209	221.00183689439
0	23305	0.000199246529	221.17014049715
0	23315	0.000199410106	221.29479219448
0	23347	0.000199698633	221.28069912727
0	23357	0.000199750445	221.52885957901
0	23455	0.000200808934	220.66509967878
0	23509	0.000201023144	220.73358176982
0	23585	0.000201203552	220.83901257369
0	23639	0.000201308304	221.02729009256
0	23671	0.000201536659	221.07969976073
0	23687	0.000201594134	221.31943193719
0	23691	0.000201657133	221.55295828291
0	23723	0.000201806129	221.69182746303
0	23733	0.000201808821	221.99131071431
0	23743	0.000201951407	222.1368026604
0	23753	0.000202001209	222.38418879958
0	23763	0.000202121058	222.55429791116
0	23773	0.00020221805	222.7493802482
0	23827	0.000202412782	222.83662139849
0	23837	0.000202459303	223.08688687425
0	23847	0.000202539551	223.29984715553
0	23901	0.000203191397	222.8838750368
0	23911	0.000203319745	223.04336990856
0	23921	0.000203440763	223.21070556543
0	23981	0.000204095817	222.79335301737
0	23985	0.000204166549	223.01511577443
0	24061	0.000204807565	222.6151251725
0	24143	0.000205438263	222.22879130846
0	24197	0.000205466747	222.49503970222
0	24201	0.00020549883	222.75731296134
0	24211	0.000205671652	222.86689438246
0	24265	0.000206183915	222.60920547561
0	24297	0.000206655837	222.39619903042
0	24329	0.000206847572	222.4851245172
0	24345	0.000207042945	222.56997440193
0	24349	0.00020717344	222.7243903707
0	24425	0.000207516125	222.65071343853
0	24457	0.000207637369	222.81465354871
0	24467	0.000207731469	223.00753861106
0	24521	0.000207917463	223.10160041728
0	24553	0.000208000772	223.30568035704
0	24651	0.000208440501	223.12740968944
0	24661	0.000208552109	223.30066304316
0	24671	0.000208581921	223.56136692691
0	24681	0.000208628381	223.8041358872
0	24691	0.000208819157	223.89195684522